/*--------------------------------*- C++ -*----------------------------------*\
| =========                 |                                                 |
| \\      /  F ield         | OpenFOAM: The Open Source CFD Toolbox           |
|  \\    /   O peration     | Version:  5.x                                   |
|   \\  /    A nd           | Web:      www.OpenFOAM.org                      |
|    \\/     M anipulation  |                                                 |
\*---------------------------------------------------------------------------*/
FoamFile
{
    version     2.0;
    format      ascii;
    class       volScalarField;
    location    "0";
    object      thickness;
}
// * * * * * * * * * * * * * * * * * * * * * * * * * * * * * * * * * * * * * //

dimensions      [0 0 0 0 0 0 0];

internalField   uniform 0;

boundaryField
{
    inlet
    {
        type            fixedValue;
        value           uniform 0;
    }
    outlet
    {
        type            fixedValue;
        value           uniform 0;
    }
    front
    {
        type            fixedValue;
        value           uniform 0;
    }
    back
    {
        type            fixedValue;
        value           uniform 0;
    }
    bottom
    {
        type            fixedValue;
        value           uniform 0;
    }
    top
    {
        type            fixedValue;
        value           uniform 0;
    }
    "(VAWT1|VAWT2|VAWT3|SHAFT)"
    {
        type            fixedValue;
        value           nonuniform List<scalar> 
2312
(
0
0
0
0
0
0
0
0
0
0
0
0
0
0
0
0
0
0
0
0
0
0
0
0
0
0
0
0
0
0
0
0
0
0
0
0
0
0
0
0
0
0
0
0
0
0
0
0
0
0
0
0
0
0
0
0
0
0
0
0
0
0
0
0
0
0
0
0
0
0
0
0
0
0
0
0
0
0
0
0
0
0
0
0
0
0
0
0
0
0
0
0
0
0
0
0
0
0
0
0
0
0
0
0
0
0
0
0
0
0
0
0
0
0
0
0
0
0
0
0
0
0
0
0
0
0
0
0
0
0
0
0
0
0
0
0
0
0
0
0.00256675
0.00256675
0.000837209
0.000837209
0.00207189
0.00207189
0.000261904
0.00278045
0.00278061
0.00278059
0.0026983
0.00278061
0.00278059
0.00278059
0.00278045
0.00278061
0.00278059
0.00275274
0.00275274
0.0026983
0.00278061
0.00278061
0.000942803
0.000942803
0.00208221
0.00208221
0.00278061
0.00278061
0.00278049
0.00278049
0.00278061
0.00278061
0.00278061
0.00278061
0.00278061
0.00278061
0.00278061
0.00244851
0.000766006
0.00263733
0.00273807
0.00278061
0.00278061
0.00278049
0.00278061
0.00258164
0.00253855
0.00259546
0.00278061
0.00278061
0.00262486
0.000792408
0.00278061
0.00278061
0.00278061
0.00278061
0.00278061
0.00278061
0.00278061
0.00278061
0.00278061
0.00278061
0.00278061
0.00278061
0.00178178
0.00270227
0.00253953
0.00253953
0.00270227
0.00159923
0.00266898
0.00254218
0.00179858
0.00270942
0.00179858
0.00270942
0.00278061
0.00278061
0.00278061
0.00278057
0.00278061
0.00278057
0.00278061
0.00278061
0.00278061
0.00278061
0.00278061
0.00278061
0.00278061
0.00276939
0.00276939
0.00203069
0.00143098
0.00244851
0.00258416
0.00258416
0.00256802
0.000766006
0.00263733
0.00278047
0.00278061
0.00278047
0.00278061
0.00275631
0.00277908
0.00277422
0.00278037
0.00275631
0.00277908
0.000725909
0.000715163
0.000725909
0.000715163
0.00273807
0.00278061
0.00278061
0.00278061
0.00278061
0.00278041
0.00262395
0.00262395
0.00278059
0.00278061
0.00271019
0.0027102
0.00278059
0.00278061
0.00278061
0.00278061
0.00277934
0.00278061
0.00277934
0.00278061
0.00278058
0.00278061
0.00278058
0.00278061
0.00261059
0.00278051
0.00278061
0.00278051
0.00278061
0.00278049
0.00278061
0.00261473
0.00254908
0.00262044
0.0021161
0.00258164
0.00254908
0.00246517
0.00205319
0.00246517
0.00205319
0.00263552
0.00277264
0.00263552
0.00277264
0.00270136
0.00134745
0.00271622
0.00163904
0.00253855
0.00259544
0.00254542
0.00254542
0.00278061
0.00270616
0.00183389
0.00270616
0.00183389
0.00262486
0.000792408
0.00278061
0.00278061
0.00278061
0.00278061
0.00278061
0.00278061
0.00278061
0.00278061
0.00278061
0.0027806
0.00278061
0.00278061
0.00278061
0.00278061
0.0027806
0.00278061
0.00278057
0.00278038
0.00278055
0.00278061
0.00278061
0.00278061
0.0027806
0.00278059
0.00278044
0.00257612
0.0027247
0.00278056
0.00278025
0.000789385
0.000836148
0.000828447
0.00278061
0.00278061
0.00278061
0.00278061
0.0027806
0.00278061
0.00278061
0.0027806
0.00278061
0.00278045
0.00278058
0.00278053
0.00278053
0.00278052
0.00278058
0.00278057
0.00278038
0.0026894
0.00272599
0.00275091
0.0026894
0.00272599
0.00275091
0.00278061
0.00278061
0.00278061
0.00278061
0.00278061
0.00278061
0.00278061
0.00278061
0.00278022
0.00278061
0.0027806
0.00277505
0.00277797
0.00277505
0.00277797
0.00276418
0.00276418
0.000857052
0.000857052
0.00262137
0.00262137
0.00175742
0.00257612
0.0027247
0.00278061
0.00278061
0.00278061
0.00278061
0.00278061
0.00278061
0.00278061
0.00278056
0.00278025
0.00151254
0.00151256
0.00256853
0.00230295
0.00256853
0.00230295
0.00245415
0.00278053
0.00278053
0.000849023
0.00277992
0.00277918
0.00277372
0.00276541
0.000710206
0.000710204
0.000688364
0.000688365
0.000789379
0.00066062
0.000660622
0.00278061
0.00278061
0.00278061
0.00278061
0.00278026
0.00083615
0.00278061
0.0027806
0.00278061
0.0027806
0.00277962
0.00278061
0.00278061
0.00278061
0.00278061
0.00278061
0.00278061
0.00278061
0.00278061
0.00278061
0.00278061
0.00278061
0.00278061
0.00278061
0.00278061
0.00278061
0.00278061
0.00278058
0.00278054
0.00278061
0.00278061
0.00278061
0.00278061
0.00278058
0.00278054
0.00278061
0.00278061
0.0027806
0.00278061
0.00278031
0.00278061
0.00278061
0.00278061
0.00278061
0.00278061
0.00278061
0.00278061
0.00278061
0.00278061
0.00278061
0.00278061
0.00278061
0.00278061
0.00278061
0.00278061
0.00278061
0.00278061
0.00278061
0.00261854
0.00134219
0.000691307
0.000819112
0.000716163
0.00200151
0.00175034
0.000549813
0.00255882
0.00142752
0.00257312
0.00230475
0.00278032
0.00278052
0.00278061
0.00278059
0.00224845
0.00225514
0.00260011
0.00273566
0.00260564
0.00221417
0.00278061
0.00278061
0.00278061
0.00278061
0.0027806
0.0027806
0.00278061
0.00278061
0.00278058
0.00278061
0.00278061
0.00278061
0.00278061
0.00278061
0.0027806
0.00278041
0.00278054
0.00278058
0.0027806
0.00278061
0.00278058
0.00278057
0.0027806
0.00259739
0.00208566
0.000842464
0.00200401
0.00256856
0.000854247
0.0025809
0.00210626
0.00278061
0.00278061
0.0027806
0.00278061
0.00278061
0.00209093
0.00229994
0.00256285
0.00206811
0.00255355
0.0020557
0.00256128
0.00145505
0.00278061
0.00278061
0.00278061
0.00278061
0.00278058
0.00278061
0.00278061
0.00278061
0.00278061
0.00278061
0.00278061
0.00278061
0.00278061
0.00278061
0.00278061
0.00278061
0.00278061
0.00278061
0.00278061
0.00278061
0.00278061
0.00278061
0.0027806
0.00278057
0.0027806
0.00278061
0.00278061
0.00278061
0.0027806
0.00278061
0.00278061
0.00278061
0.0027806
0.00278059
0.00278059
0.00278061
0.00278061
0.00278061
0.00278061
0.00278061
0.0027806
0.00278061
0.00278061
0.00278061
0.00277297
0.00267101
0.00274836
0.0027619
0.00267101
0.00274836
0.00277038
0.0027806
0.00278061
0.0027806
0.00278038
0.00278031
0.00268567
0.00250046
0.00216716
0.00135813
0.00190177
0.00267706
0.00253482
0.00244116
0.00212216
0.00262505
0.00225472
0.00258536
0.000846052
0.00256959
0.0020715
0.00212216
0.00262505
0.00258536
0.00225473
0.000846052
0.00256959
0.0020715
0.00216718
0.00253483
0.00221475
0.00203799
0.00203192
0.000819997
0.000811557
0.00199959
0.00221475
0.00245728
0.00203799
0.00203192
0.00274762
0.0027705
0.00231163
0.00215164
0.0024913
0.00274906
0.00254206
0.00267106
0.00274762
0.00277822
0.00215164
0.00254206
0.00278061
0.00278061
0.00278061
0.00278061
0.00278061
0.00278061
0.00278061
0.00278061
0.00278061
0.00278061
0.0027806
0.00278031
0.00278061
0.00278061
0.00277946
0.0027806
0.00278031
0.00278061
0.00278061
0.00278061
0.00278061
0.00278061
0.00278061
0.00278061
0.00278061
0.00278061
0.00278061
0.00278061
0.00278061
0.00278061
0.00278061
0.00278061
0.00278061
0.00278061
0.00278061
0.00278061
0.00278061
0.00278061
0.00278061
0.00278061
0.00278061
0.00278061
0.00278061
0.00278061
0.00278061
0.00278061
0.00278061
0.00278061
0.00278061
0.00278061
0.00278061
0.00278061
0.00278061
0.00278061
0.00278061
0.00278045
0.00278056
0.00278045
0.00278056
0.00278061
0.00278061
0.00278061
0.00278056
0.00278056
0.00278061
0.00278058
0.0027806
0.00277945
0.00277918
0.0027806
0.0027806
0.00277908
0.00277892
0.0027801
0.00278038
0.00277908
0.00277892
0.0027801
0.00278059
0.00278056
0.00278061
0.0027806
0.00278058
0.00277945
0.00277918
0.0027806
0.00276851
0.00276851
0.00200087
0.000854663
0.000545987
0.000694879
0.00150158
0.000801126
0.00200087
0.000694879
0.000854664
0.000801126
0.000498839
0.00134219
0.000819112
0.000716163
0.00200151
0.000549813
0.00210299
0.00259557
0.000835003
0.0025913
0.00210299
0.00259557
0.0025913
0.00207091
0.00255882
0.00142752
0.00257312
0.00230475
0.00278056
0.0027806
0.00278061
0.0027806
0.00278061
0.00278061
0.00278061
0.00278061
0.00278061
0.00278057
0.0027806
0.0027806
0.00278056
0.0027806
0.00270161
0.00276663
0.00277101
0.00277524
0.00275407
0.00277924
0.00277732
0.00278
0.00278059
0.00277953
0.00278045
0.00270161
0.00268612
0.00276663
0.00277524
0.000959567
0.000585199
0.00150178
0.00244062
0.000959567
0.000585199
0.000727175
0.00150178
0.000261904
0.00072294
0.00224845
0.00225514
0.00260011
0.00273566
0.00278061
0.00278061
0.00278061
0.00278061
0.00278061
0.00278061
0.00278061
0.00278061
0.00278061
0.00278061
0.00278061
0.00278061
0.00278061
0.00278061
0.00278061
0.00278061
0.00278061
0.00278061
0.00278061
0.00278061
0.00278054
0.0027806
0.00277977
0.0027806
0.00278059
0.00278059
0.00278054
0.0027806
0.00277932
0.00277977
0.0027806
0.00278059
0.0027806
0.00278061
0.0027806
0.00278061
0.00230769
0.00230771
0.0027806
0.00278061
0.00277862
0.00269153
0.00257542
0.00275127
0.00271657
0.00267438
0.00277862
0.00269154
0.00257542
0.00271657
0.00267438
0.00278057
0.00278039
0.00278042
0.00278054
0.00278061
0.00278059
0.0027806
0.00278061
0.00278061
0.00278061
0.00278061
0.00278061
0.00278061
0.00278061
0.00278061
0.00278059
0.00278052
0.00278046
0.00278037
0.00278061
0.00278061
0.00278058
0.00278057
0.00278059
0.00278046
0.00278037
0.00278061
0.00278058
0.00278057
0.00277946
0.00278012
0.0027806
0.0027806
0.00278061
0.0027806
0.00278061
0.0027806
0.00278058
0.00278041
0.00278054
0.00278058
0.00278012
0.00210559
0.00255292
0.00207852
0.000838311
0.00207193
0.000855436
0.00214559
0.000882437
0.00210568
0.00255294
0.000838383
0.00207202
0.000855505
0.00278058
0.00278061
0.00278053
0.00278058
0.00278044
0.00278058
0.0027806
0.00278061
0.00278057
0.00278055
0.00278032
0.00278051
0.00278044
0.0027804
0.00278054
0.00277355
0.00278032
0.00277929
0.00278029
0.00277968
0.00278057
0.00278055
0.00278032
0.00278051
0.00278044
0.00277946
0.00278031
0.00277857
0.00278024
0.00277916
0.00277888
0.00278013
0.00277678
0.00270805
0.00277797
0.00278057
0.0027806
0.00269715
0.00272214
0.00275399
0.00260459
0.00251353
0.00247936
0.00266668
0.00208318
0.000890114
0.000873028
0.00259786
0.00215582
0.00212746
0.00246836
0.00202536
0.00229831
0.000803613
0.000894984
0.00088642
0.0026137
0.00216443
0.00215144
0.000180435
0.00112233
0.00259738
0.00208566
0.00211951
0.000842459
0.00246836
0.00202536
0.000803613
0.00187806
0.00232922
0.00215069
0.000898993
0.00187806
0.00232922
0.00215069
0.000898994
0.00145394
0.000788785
0.00219239
0.00232974
0.00251183
0.00183086
0.00231277
0.00269882
0.00277834
0.00275089
0.00269882
0.00277834
0.00275089
0.00219239
0.00251183
0.00183086
0.00145395
0.00268321
0.00256289
0.00209583
0.00130391
0.0022559
0.0026606
0.00247359
0.00231319
0.000903589
0.00262131
0.00217402
0.0018909
0.000538415
0.00131035
0.00268321
0.00254085
0.00245782
0.00256289
0.00209583
0.00130391
0.0022559
0.00211307
0.00138932
0.0019223
0.002004
0.00256855
0.000854195
0.00258089
0.00210619
0.00204869
0.00204869
0.00278061
0.00278061
0.00278061
0.00278061
0.00278061
0.00278061
0.00278061
0.00278061
0.00278061
0.00278061
0.00278061
0.00278061
0.00278061
0.00278061
0.00278061
0.00278061
0.00278061
0.00278058
0.00278061
0.00255069
0.0021985
0.00268807
0.00230013
0.00255069
0.0021985
0.00268807
0.00209094
0.00229995
0.00206811
0.00256128
0.000856022
0.00145505
0.00278061
0.00278061
0.00278061
0.00278061
0.00278061
0.00278061
0.00278034
0.00278061
0.00278061
0.00278061
0.00278061
0.00278061
0.00278061
0.00278061
0.00278061
0.00278061
0.00278061
0.00278061
0.00278061
0.00278061
0.00278061
0.00278061
0.00278061
0.0027806
0.00278061
0.00278061
0.00278061
0.00278061
0.00278061
0.00278061
0.00278061
0.00278061
0.00278061
0.00278061
0.00278061
0.00278061
0.00278061
0.00278061
0.00278061
0.00278061
0.00278061
0.00278061
0.00278061
0.00278061
0.00278061
0.00278061
0.00278061
0.00278061
0.00278061
0.00278061
0.00278061
0.00278061
0.00278061
0.00278061
0.00278061
0.00278061
0.00278061
0.00278061
0.00278061
0.00278061
0.00278061
0.00278061
0.00278061
0.00278061
0.00278061
0.00278061
0.00278061
0.00278061
0.00278061
0.00278061
0.00278061
0.00278061
0.00278061
0.00278061
0.00278061
0.00278058
0.00278061
0.00278061
0.00278061
0.00278061
0.00278061
0.00278061
0.00278061
0.00278061
0.00278061
0.00278061
0.00278061
0.00278061
0.00278058
0.00278061
0.00278061
0.00278061
0.00277976
0.00277957
0.00277996
0.00278026
0.00278043
0.00278013
0.00278013
0.00278043
0.00180908
0.00277976
0.00278022
0.00277996
0.00277957
0.00230958
0.00230958
0.00175742
0.00276828
0.00277869
0.00277869
0.00278061
0.00278061
0.0027782
0.0027782
0.00276726
0.00278048
0.00278048
0.00278061
0.00278061
0.00278061
0.00278061
0.00278061
0.00278059
0.00278061
0.00254218
0.00256802
0.0027806
0.0027806
0.00278061
0.00173309
0.00166073
0.00278061
0.00278061
0.00278061
0.00278061
0.00278061
0.00277422
0.00278037
0.00278041
0.00278051
0.00278061
0.00262092
0.00270136
0.00134744
0.00278061
0.00278061
0.00278061
0.00278061
0.00278061
0.00278061
0.00278061
0.00278061
0.00278061
0.00278061
0.00278061
0.00278061
0.00278057
0.00278026
0.00277297
0.00277915
0.00274486
0.00159922
0.00266898
0.00178178
0.00277822
0.00278061
0.00278061
0.00278061
0.00278061
0.00278061
0.00278061
0.00278061
0.00278061
0.00278061
0.00278061
0.0027806
0.00278061
0.00278059
0.00278061
0.00278061
0.00278061
0.00277924
0.00278024
0.00277924
0.00278024
0.00278038
0.00143098
0.00203069
0.00278061
0.00278061
0.00278061
0.00278061
0.00278061
0.0027806
0.00267671
0.00267671
0.00244062
0.00173309
0.00166073
0.00278061
0.00278061
0.00278061
0.00278061
0.00278061
0.00278061
0.00278013
0.00278013
0.00278061
0.00278051
0.00274403
0.00278035
0.0027789
0.00277316
0.00274403
0.00278035
0.00277316
0.0027789
0.00278061
0.00278061
0.00260221
0.00261052
0.00257934
0.00257937
0.00260224
0.00277893
0.00277937
0.00278061
0.00278061
0.00277893
0.00277937
0.00278061
0.00278061
0.0027806
0.00277947
0.00277993
0.0027806
0.00261679
0.00269903
0.00275512
0.00277753
0.00224177
0.00263745
0.00101421
0.00264353
0.00257017
0.00277095
0.000631735
0.00257787
0.00258867
0.0021161
0.00229831
0.00258408
0.00258409
0.00278058
0.00278058
0.00271622
0.00163904
0.00278061
0.00278061
0.00278061
0.00278061
0.00278061
0.00274576
0.00274576
0.00230013
0.00278061
0.00278061
0.00278061
0.00278061
0.00278061
0.00278061
0.00278061
0.00278061
0.00278061
0.00278061
0.0027802
0.00278057
0.00278061
0.00278061
0.00278061
0.00278061
0.00278061
0.00278061
0.00278061
0.00278061
0.00278061
0.00278061
0.00278061
0.00278061
0.00278061
0.00278061
0.00278061
0.00278061
0.00278061
0.00278061
0.00278061
0.00278061
0.00278061
0.00278061
0.00278061
0.00278061
0.00278061
0.00278059
0.00278061
0.00278061
0.00278059
0.00278061
0.00278061
0.00278061
0.00278061
0.00278038
0.00278052
0.00278055
0.00278061
0.00278061
0.00278061
0.00180906
0.000642208
0.00212523
0.000825663
0.00278037
0.00252292
0.00278049
0.00278043
0.00278061
0.00278061
0.000820315
0.00278049
0.00278058
0.0027806
0.00278033
0.00278051
0.00278055
0.00278045
0.00278055
0.00278058
0.00278058
0.0027806
0.00247341
0.00247342
0.00271064
0.00278055
0.00256443
0.00256444
0.00212524
0.00132004
0.000819997
0.00132004
0.00262368
0.00262368
0.00231163
0.0024913
0.00277946
0.00276932
0.00277503
0.002778
0.00276932
0.00277503
0.002778
0.00278061
0.00278061
0.00278048
0.00278055
0.0027804
0.00278055
0.00278048
0.0027804
0.00278059
0.000642222
0.00134401
0.000867187
0.000867188
0.000825663
0.00278037
0.00278044
0.00243012
0.00254781
0.00268612
0.00272075
0.00243012
0.00254781
0.00272075
0.00194467
0.00126332
0.00105422
0.00194467
0.00126332
0.00105422
0.00252292
0.00278061
0.00278061
0.00278061
0.00277932
0.00278024
0.00278049
0.00278043
0.000849072
0.00245415
0.00278061
0.00278035
0.00278058
0.00278035
0.00278052
0.00278058
0.00277946
0.00278026
0.00278044
0.00278053
0.00277994
0.00278036
0.00277994
0.000542587
0.000542587
0.00272745
0.00276828
0.00272745
0.00277474
0.00277981
0.00277474
0.00277981
0.000820297
0.00082845
0.00278049
0.0027806
0.00276726
0.00273636
0.00277438
0.00275782
0.00261589
0.00273636
0.00277438
0.00275782
0.00261589
0.00278061
0.00278061
0.00278061
0.00278061
0.00278061
0.00278061
0.00278061
0.00278061
0.00277962
0.00278033
0.00278051
0.00278058
0.00278059
0.00278058
0.00278053
0.00278059
0.00278059
0.00278058
0.00278053
0.00278059
0.00278061
0.00278061
0.00278061
0.00278058
0.00278041
0.0027806
0.00278061
0.0027805
0.0027806
0.00277915
0.00277996
0.00278061
0.00278061
0.00278061
0.00278061
0.00278061
0.00278061
0.00278061
0.00278061
0.00278061
0.00278061
0.00278061
0.00278061
0.00278061
0.00278061
0.00278061
0.00278061
0.0027806
0.00278061
0.00278061
0.00259025
0.00268567
0.00225987
0.00134401
0.000880969
0.002133
0.0016405
0.00214164
0.000566532
0.000185993
0.000811557
0.00207091
0.00205507
0.000855566
0.00209539
0.00278056
0.00278057
0.00173153
0.000727175
0.00213703
0.00170962
0.00072294
0.00278061
0.00278061
0.00278061
0.00278061
0.00278061
0.00278061
0.00278061
0.00278061
0.00278061
0.00278061
0.0027806
0.00278059
0.00278058
0.00277924
0.00277732
0.00278
0.0027805
0.00278059
0.00277953
0.00278045
0.00278058
0.00278061
0.00278061
0.00278061
0.00278061
0.00278061
0.00278061
0.00278061
0.00278061
0.00278061
0.00278059
0.00278061
0.00278053
0.00211958
0.000896217
0.000886682
0.00261379
0.00216615
0.00215179
0.000692376
0.00266061
0.0024736
0.00231322
0.00205423
0.000833626
0.000903623
0.00207565
0.00262132
0.00217407
0.0018909
0.000538403
0.00131037
0.00278061
0.00278061
0.00278061
0.00278058
0.00278061
0.00085602
0.00278061
0.00278061
0.00278061
0.00278057
0.00278059
0.00278061
0.00278061
0.0027806
0.0027806
0.00278057
0.00278061
0.00278058
0.00278061
0.0027806
0.00278061
0.00278061
0.00278061
0.00278061
0.00278061
0.00278061
0.00278061
0.00278061
0.00278061
0.00278061
0.00278061
0.00278061
0.00278061
0.00278058
0.00278061
0.0027806
0.00277921
0.00277666
0.00277838
0.00277038
0.00271063
0.00277315
0.0027503
0.00277838
0.00278026
0.00274486
0.0027503
0.00268136
0.0027619
0.00277315
0.00278061
0.00278057
0.00278041
0.00278061
0.00278055
0.0027805
0.0027806
0.00278058
0.00277921
0.00277666
0.00277996
0.00250045
0.00268136
0.000873649
0.00199958
0.000498476
0.00128059
0.000850678
0.00245728
0.00208933
0.000850678
0.00087365
0.000498479
0.00135813
0.0012806
0.00267706
0.00244116
0.00208933
0.00190178
0.0006771
0.00258793
0.0025362
0.0006771
0.00258793
0.0025362
0.00277194
0.0027705
0.00277194
0.00274906
0.00267106
0.00278061
0.00278061
0.00278061
0.00278061
0.00278059
0.0027803
0.00278028
0.00277891
0.00278056
0.0027805
0.00278059
0.0027803
0.00278028
0.00277891
0.00278056
0.0027805
0.00278061
0.00278061
0.00278061
0.00278061
0.00278061
0.00278061
0.00278061
0.00278061
0.00278061
0.00278061
0.00278061
0.00278061
0.00278061
0.00278061
0.00278061
0.00278061
0.00278061
0.00278061
0.00278061
0.00278061
0.00278061
0.00278061
0.00278061
0.00278061
0.00278061
0.00278061
0.00278061
0.00278061
0.00278061
0.00278061
0.00278061
0.00278061
0.00278061
0.00278061
0.00278061
0.00278058
0.0027806
0.00278056
0.00278061
0.00278059
0.0027806
0.00278061
0.00278061
0.00278058
0.00278061
0.00278059
0.00278061
0.00278061
0.00278061
0.0027806
0.00278061
0.00278061
0.00278028
0.00278032
0.00278038
0.0027802
0.00278048
0.00277972
0.00278054
0.00278054
0.00278059
0.00278058
0.0027805
0.00278034
0.0027805
0.00278058
0.00278034
0.0027806
0.00278054
0.0027802
0.00278048
0.00277972
0.00278032
0.00278028
0.00278038
0.00278054
0.00250022
0.0025765
0.00231677
0.00209725
0.00179692
0.000230992
0.000889042
0.000545987
0.000230992
0.00150158
0.000889042
0.00179692
0.00259025
0.00261854
0.00088097
0.00225987
0.002133
0.00250022
0.00257651
0.00231677
0.00209725
0.000222306
0.000498839
0.000691307
0.000222306
0.0016405
0.00214164
0.000566532
0.00175034
0.000185993
0.00212028
0.00086007
0.00211037
0.000835003
0.00212028
0.00086007
0.00211037
0.00205507
0.000855566
0.00209539
0.00278057
0.0027806
0.00278061
0.00278061
0.00278061
0.00278061
0.00278061
0.00278061
0.00278061
0.00278061
0.00278061
0.00278061
0.00278061
0.00278061
0.00278061
0.00278061
0.00278061
0.00278061
0.00278061
0.00278061
0.00278061
0.00278032
0.00278052
0.00278061
0.00278059
0.00278056
0.00278057
0.00258109
0.00274653
0.00258109
0.00274653
0.00277101
0.00275407
0.0022276
0.00167759
0.002045
0.000469043
0.000373416
0.0022276
0.00167759
0.002045
0.000469043
0.000373416
0.00173153
0.00260564
0.00221417
0.00213703
0.00170962
0.00278061
0.00278061
0.00278061
0.00278061
0.00278061
0.00278061
0.00278061
0.00278061
0.00278061
0.00278061
0.00278061
0.00278061
0.00278061
0.00278061
0.00278061
0.00278061
0.00278061
0.00278061
0.00278061
0.00278061
0.00278061
0.00278061
0.00278061
0.00278061
0.00278057
0.00278034
0.00278054
0.00278052
0.00278044
0.00278057
0.00278034
0.00278024
0.00278054
0.00278052
0.00278044
0.0027806
0.00278058
0.00278061
0.00278058
0.0027805
0.00278058
0.00207858
0.00278057
0.00278042
0.00278054
0.00278061
0.00278059
0.00277983
0.00277305
0.00275541
0.00277316
0.00276002
0.00278039
0.00277938
0.00277682
0.00277305
0.00275541
0.00277316
0.00275127
0.00276002
0.00277938
0.00277682
0.00277983
0.00278061
0.00278061
0.00278061
0.00278061
0.00278061
0.00278061
0.00278061
0.00278061
0.00278007
0.00278061
0.00278061
0.00278061
0.00278007
0.00278061
0.00278056
0.00278059
0.00278052
0.00278043
0.00278026
0.0027806
0.00278061
0.00278061
0.00278061
0.00278061
0.00278059
0.00278053
0.0027806
0.00278059
0.00278043
0.00278052
0.00278056
0.00259124
0.00212332
0.00214529
0.00256297
0.000866288
0.000882204
0.00261609
0.00215936
0.0008661
0.00259746
0.0008922
0.000842352
0.00212079
0.0020848
0.00261619
0.00215979
0.00259753
0.00212111
0.000892541
0.000866348
0.000842456
0.00208494
0.00259125
0.00212345
0.00256299
0.000866387
0.00278058
0.0027806
0.00278036
0.00278032
0.00278036
0.00278061
0.00278057
0.00278056
0.00278061
0.00278036
0.00278032
0.00278061
0.00278057
0.00278056
0.00278061
0.0027806
0.00278061
0.00278059
0.00278032
0.00278005
0.00278054
0.0027806
0.00278054
0.0027806
0.00277637
0.002779
0.0027806
0.00278061
0.00278059
0.00278005
0.00278025
0.0027806
0.00278056
0.00278051
0.00274386
0.00276833
0.00260079
0.00216942
0.000894913
0.000888023
0.00260454
0.00216268
0.00214913
0.00274511
0.00256734
0.00276383
0.00269928
0.0027688
0.00277358
0.00231373
0.00255599
0.00233868
0.000906957
0.00151921
0.00270757
0.00228225
0.00266639
0.00226354
0.00275099
0.00273983
0.00135803
0.00165515
0.00210917
0.00208781
0.000864767
0.000848267
0.00188727
0.000407894
0.000180434
0.00157155
0.00112233
0.000716888
0.000692337
0.00188727
0.000407895
0.00157155
0.000716889
0.00162335
0.000215501
0.00117941
0.00162335
0.000215501
0.00117941
0.00255405
0.00275029
0.00267782
0.0026408
0.00271163
0.000862975
0.00210952
0.00278023
0.00277115
0.00275279
0.00278023
0.00277115
0.00277879
0.00275279
0.00232974
0.00267782
0.00231278
0.00255405
0.00275029
0.00271163
0.000863015
0.000788785
0.00264081
0.00210958
0.0027804
0.00277879
0.0027804
0.00254085
0.00245782
0.00211307
0.00138932
0.00055931
0.0019223
0.00261608
0.00055931
0.00261608
0.0020542
0.000833583
0.00207559
0.00255356
0.0020557
0.00278061
0.00278061
0.00278061
0.00278061
0.00278061
0.00278061
0.00278061
0.00278061
0.00278061
0.00278061
0.00278061
0.00278061
0.00278061
0.00278061
0.00278058
0.00278061
0.00266916
0.00274548
0.00277024
0.00277862
0.00277275
0.00277867
0.00249649
0.00266916
0.00274548
0.00277862
0.0027802
0.00277024
0.00277275
0.00249649
0.00256285
0.00278061
0.00278061
0.00278061
0.00278061
0.00278061
0.00278061
0.00278061
0.00278061
0.00278061
0.00278061
0.00278061
0.00278061
0.00278061
0.00278061
0.00278061
0.00278061
0.00278061
0.00278061
0.00278061
0.00278061
0.00278061
0.00278061
0.00278061
0.00278061
0.00278061
0.00278061
0.00278034
0.00277867
0.00278061
0.00278061
0.00278061
0.00278061
0.00278061
0.00278061
0.00278061
0.00278061
0.00278061
0.00278061
0.00278061
0.00278061
0.00278061
0.00278061
0.00278061
0.00278061
0.00278059
0.00278061
0.00278061
0.00278061
0.00278061
0.00278061
0.00278061
0.00278061
0.00278061
0.00278061
0.00278061
0.00278061
0.00278061
0.00278061
0.00278061
0.00278061
0.00278061
0.00278061
0.00278061
0.00278061
0.00278061
0.00278061
0.00278061
0.00278061
0.00278061
0.00278061
0.00278061
0.00278061
0.00278061
0.00278061
0.00278061
0.00278061
0.00278061
0.00278061
0.00278061
0.00278061
0.00278061
0.00278061
0.00278061
0.00278061
0.00278061
0.00278061
0.00278061
0.00278061
0.00278061
0.00278061
0.00278061
0.00278061
0.00278061
0.00278061
0.00278061
0.00278061
0.00278061
0.00278061
0.00278061
0.00278061
0.00278061
0.00278057
0.00278061
0.0027806
0.0027806
0.00278061
0.00278061
0.00278061
0.00278061
0.00278061
0.00278061
0.00278061
0.00278061
0.00278061
0.00278061
0.00278061
0.0027806
0.00278057
0.00278061
0.0027806
0.00278061
0.00278061
0.00278061
0.00278061
0.00278061
0.00278061
0.00278061
0.00278061
0.00278061
0.00278061
0.00278061
0.00278061
0.00278061
0.00278061
0.00278061
0.00278061
0.00278061
0.00278061
0.00278061
0.00278061
0.00278061
)
;
    }
    AMI
    {
        type            fixedValue;
        value           uniform 0;
    }
    AMI_slave
    {
        type            fixedValue;
        value           uniform 0;
    }
}


// ************************************************************************* //
