/*--------------------------------*- C++ -*----------------------------------*\
| =========                 |                                                 |
| \\      /  F ield         | OpenFOAM: The Open Source CFD Toolbox           |
|  \\    /   O peration     | Version:  5.x                                   |
|   \\  /    A nd           | Web:      www.OpenFOAM.org                      |
|    \\/     M anipulation  |                                                 |
\*---------------------------------------------------------------------------*/
FoamFile
{
    version     2.0;
    format      ascii;
    class       volScalarField;
    location    "0";
    object      thicknessFraction;
}
// * * * * * * * * * * * * * * * * * * * * * * * * * * * * * * * * * * * * * //

dimensions      [0 0 0 0 0 0 0];

internalField   uniform 0;

boundaryField
{
    inlet
    {
        type            fixedValue;
        value           uniform 0;
    }
    outlet
    {
        type            fixedValue;
        value           uniform 0;
    }
    front
    {
        type            fixedValue;
        value           uniform 0;
    }
    back
    {
        type            fixedValue;
        value           uniform 0;
    }
    bottom
    {
        type            fixedValue;
        value           uniform 0;
    }
    top
    {
        type            fixedValue;
        value           uniform 0;
    }
    "(VAWT1|VAWT2|VAWT3|SHAFT)"
    {
        type            fixedValue;
        value           nonuniform List<scalar> 
2312
(
0
0
0
0
0
0
0
0
0
0
0
0
0
0
0
0
0
0
0
0
0
0
0
0
0
0
0
0
0
0
0
0
0
0
0
0
0
0
0
0
0
0
0
0
0
0
0
0
0
0
0
0
0
0
0
0
0
0
0
0
0
0
0
0
0
0
0
0
0
0
0
0
0
0
0
0
0
0
0
0
0
0
0
0
0
0
0
0
0
0
0
0
0
0
0
0
0
0
0
0
0
0
0
0
0
0
0
0
0
0
0
0
0
0
0
0
0
0
0
0
0
0
0
0
0
0
0
0
0
0
0
0
0
0
0
0
0
0
0
0.923087
0.923087
0.301088
0.301088
0.745119
0.745119
0.0941892
0.999942
1
0.99999
0.970397
1
0.999992
0.999992
0.999942
1
0.99999
0.989975
0.989975
0.970397
1
1
0.339063
0.339063
0.748832
0.748832
0.999998
0.999998
0.999955
0.999955
1
0.999999
0.999999
1
1
1
1
0.880564
0.275481
0.948471
0.984701
1
1
0.999955
0.999999
0.928442
0.912947
0.933414
1
1
0.943987
0.284976
0.999999
1
1
1
1
0.999998
1
1
1
1
0.999998
0.999999
0.640785
0.971827
0.9133
0.9133
0.971827
0.575134
0.959854
0.914251
0.646829
0.974398
0.646829
0.974398
1
0.999999
1
0.999986
1
0.999986
0.999999
1
1
1
1
0.999999
1
0.995964
0.995964
0.730304
0.514627
0.880564
0.929349
0.929349
0.923544
0.275481
0.948471
0.99995
0.999999
0.99995
0.999999
0.991262
0.999448
0.997703
0.999914
0.991262
0.999448
0.261061
0.257196
0.261061
0.257196
0.984701
1
1
0.999999
0.999999
0.999926
0.943658
0.943661
0.999991
1
0.974675
0.974676
0.999991
1
1
1
0.999542
0.999998
0.999542
0.999998
0.999988
1
0.999988
1
0.938854
0.999964
1
0.999964
1
0.999955
0.999999
0.940342
0.916732
0.942397
0.761018
0.928442
0.916732
0.886558
0.738393
0.886558
0.738393
0.947821
0.997131
0.947821
0.997131
0.971497
0.484588
0.976842
0.589454
0.912946
0.933407
0.915417
0.915417
1
0.973226
0.659526
0.973226
0.659526
0.943987
0.284976
1
1
1
1
1
1
0.999998
1
1
0.999995
1
0.999998
1
1
0.999995
1
0.999984
0.999917
0.999979
1
1
0.999998
0.999997
0.999993
0.999938
0.926456
0.979891
0.99998
0.999869
0.283889
0.300706
0.297937
1
1
1
0.999998
0.999995
0.999998
0.999998
0.999995
0.999998
0.999943
0.999989
0.999972
0.999972
0.999967
0.999989
0.999984
0.999917
0.967197
0.980357
0.989319
0.967197
0.980357
0.989319
1
1
1
1
1
1
1
1
0.999859
0.999998
0.999997
0.997999
0.999049
0.997999
0.999049
0.994089
0.994089
0.308224
0.308224
0.942731
0.942731
0.632026
0.926456
0.979891
1
1
1
1
1
1
1
0.99998
0.999869
0.54396
0.543966
0.923728
0.828216
0.923729
0.828218
0.882593
0.99997
0.99997
0.305337
0.999751
0.999484
0.99752
0.994531
0.255414
0.255413
0.247558
0.247559
0.283887
0.237581
0.237581
0.999999
1
0.999999
1
0.999873
0.300707
0.999999
0.999997
0.999999
0.999997
0.999643
0.999999
1
0.999999
1
1
1
1
1
1
1
1
1
1
1
1
1
0.99999
0.999975
1
1
1
1
0.99999
0.999975
1
1
0.999996
0.999999
0.99989
0.999998
0.999999
1
1
1
1
1
1
1
1
1
1
1
1
1
1
0.999999
0.999999
0.941712
0.482695
0.248617
0.29458
0.257556
0.719808
0.62948
0.197731
0.920237
0.513382
0.925381
0.828866
0.999894
0.999966
0.999999
0.999992
0.808617
0.811025
0.935084
0.983834
0.937074
0.79629
1
1
1
1
0.999997
0.999996
0.999999
0.999999
0.999987
1
1
1
1
1
0.999997
0.999929
0.999973
0.999988
0.999996
1
0.999988
0.999984
0.999996
0.934107
0.750073
0.302978
0.720707
0.923739
0.307215
0.928178
0.757482
1
1
0.999996
1
0.999999
0.751969
0.827136
0.921687
0.74376
0.918343
0.739296
0.921119
0.523283
1
1
1
1
0.999987
1
0.999999
1
1
1
0.999999
0.999999
1
1
1
1
0.999999
1
1
0.999999
1
1
0.999997
0.999986
0.999997
1
1
0.999997
0.999995
0.999999
0.999999
0.999999
0.999997
0.999991
0.999991
0.999998
1
1
1
0.999997
0.999995
0.999999
0.999999
0.999999
0.997253
0.960582
0.988402
0.993269
0.960583
0.988403
0.996319
0.999996
0.999999
0.999995
0.999918
0.99989
0.965855
0.899246
0.779384
0.488427
0.683938
0.96276
0.911605
0.87792
0.763198
0.944056
0.810873
0.929782
0.304268
0.924111
0.74498
0.763199
0.944056
0.929782
0.810874
0.304268
0.924111
0.74498
0.77939
0.911607
0.796496
0.732928
0.730746
0.294898
0.291863
0.719117
0.796497
0.883721
0.732928
0.730746
0.988134
0.996364
0.831339
0.773801
0.895955
0.988653
0.914207
0.960601
0.988134
0.999138
0.773801
0.914207
1
1
1
1
1
1
1
1
0.999999
0.999999
0.999996
0.999892
0.999999
0.999999
0.999586
0.999996
0.999892
1
1
1
1
1
1
1
1
1
1
1
1
1
1
1
1
1
1
1
1
1
1
1
1
0.999998
1
1
1
1
1
1
1
1
0.999998
1
1
1
0.999998
0.999943
0.99998
0.999943
0.99998
1
0.999999
1
0.999982
0.999981
0.999998
0.999989
0.999996
0.999581
0.999484
0.999995
0.999995
0.99945
0.999392
0.999817
0.999915
0.99945
0.999392
0.999817
0.999992
0.999981
0.999998
0.999996
0.999989
0.999581
0.999484
0.999995
0.995648
0.995648
0.719579
0.307365
0.196355
0.249901
0.540018
0.288111
0.719579
0.249901
0.307365
0.288111
0.179399
0.482695
0.29458
0.257556
0.719808
0.197731
0.756305
0.933453
0.300295
0.931916
0.756305
0.933453
0.931916
0.744767
0.920237
0.513382
0.925381
0.828866
0.999983
0.999996
0.999999
0.999996
1
0.999999
1
1
0.999999
0.999984
0.999994
0.999996
0.999983
0.999996
0.971588
0.994973
0.996545
0.998068
0.990455
0.999507
0.998816
0.999781
0.99999
0.999609
0.999941
0.971588
0.966018
0.994973
0.998068
0.345092
0.210457
0.540091
0.877727
0.345092
0.210457
0.261516
0.540091
0.0941892
0.259993
0.808617
0.811025
0.935084
0.983834
1
1
1
1
1
1
1
1
1
1
1
1
1
1
1
1
1
1
1
1
0.999972
0.999997
0.999699
0.999995
0.999992
0.999993
0.999972
0.999997
0.999537
0.999699
0.999995
0.999992
0.999997
0.999999
0.999996
0.999999
0.82992
0.829929
0.999997
0.999999
0.999283
0.967964
0.926205
0.989447
0.976967
0.961794
0.999283
0.967965
0.926207
0.976967
0.961794
0.999986
0.99992
0.99993
0.999973
0.999999
0.999994
0.999997
0.999999
1
1
1
1
1
1
1
0.999994
0.999966
0.999946
0.999912
1
0.999998
0.999989
0.999984
0.999994
0.999946
0.999912
0.999998
0.999989
0.999984
0.999587
0.999822
0.999996
0.999996
0.999999
0.999996
0.999999
0.999997
0.999988
0.999929
0.999973
0.999988
0.999822
0.757239
0.918115
0.747504
0.301484
0.745135
0.307643
0.771624
0.317354
0.757271
0.91812
0.30151
0.745167
0.307668
0.999988
0.999997
0.999972
0.999988
0.999939
0.999988
0.999994
0.999997
0.999985
0.999977
0.999896
0.999965
0.999937
0.999923
0.999973
0.997461
0.999894
0.999526
0.999883
0.999663
0.999985
0.999976
0.999896
0.999965
0.999937
0.999584
0.99989
0.999266
0.999867
0.999477
0.999378
0.999826
0.998621
0.973906
0.999051
0.999984
0.999996
0.969983
0.978972
0.990425
0.936695
0.903948
0.89166
0.959027
0.749182
0.320115
0.31397
0.934276
0.775303
0.765104
0.887702
0.728387
0.826549
0.289006
0.321866
0.318786
0.939973
0.778401
0.773728
0.0648902
0.403626
0.934103
0.750071
0.762248
0.302976
0.887703
0.728387
0.289006
0.675412
0.837664
0.773459
0.323308
0.675411
0.837664
0.773459
0.323308
0.522886
0.283673
0.788455
0.837851
0.903337
0.658439
0.831748
0.970583
0.999181
0.989311
0.970583
0.999181
0.989311
0.788456
0.903337
0.658439
0.52289
0.964972
0.921699
0.75373
0.46893
0.811297
0.956841
0.889584
0.831901
0.32496
0.942708
0.781849
0.68003
0.193632
0.471246
0.964972
0.913774
0.883913
0.921699
0.753731
0.468931
0.811298
0.759929
0.499644
0.691323
0.720704
0.923737
0.307197
0.928172
0.757456
0.736776
0.736777
1
1
1
1
1
1
1
1
1
1
1
1
1
1
1
1
0.999999
0.999987
0.999999
0.917314
0.790654
0.966719
0.827203
0.917314
0.790654
0.966719
0.75197
0.827136
0.743761
0.92112
0.307854
0.523283
1
1
1
1
0.999998
1
0.999903
1
1
1
1
1
1
1
1
1
1
1
1
1
1
1
1
0.999996
1
0.999999
1
1
1
1
1
1
1
1
1
1
1
1
1
1
1
1
1
1
1
1
1
1
1
1
1
1
1
1
1
1
1
1
1
1
1
1
1
1
1
1
1
1
1
1
1
1
1
0.999998
1
0.999988
0.999999
1
1
1
1
1
1
1
1
1
0.999998
1
0.999988
0.999999
1
1
0.999692
0.999625
0.999766
0.999873
0.999935
0.999827
0.999827
0.999935
0.650605
0.999692
0.999859
0.999766
0.999625
0.8306
0.8306
0.632026
0.995567
0.999308
0.999308
1
1
0.999131
0.999131
0.9952
0.999952
0.999952
1
1
1
1
1
0.999994
0.999998
0.914251
0.923544
0.999997
0.999996
0.999997
0.623277
0.597253
1
1
1
1
0.999999
0.997703
0.999914
0.999926
0.999964
1
0.94257
0.971498
0.484583
0.999999
0.999999
0.999999
1
1
0.999998
1
1
1
0.999999
1
0.999998
0.999986
0.999873
0.997253
0.999475
0.987142
0.575134
0.959853
0.640785
0.999138
1
1
1
0.999999
1
1
1
1
1
1
0.999997
0.999998
0.999994
1
1
0.999998
0.999508
0.999867
0.999508
0.999867
0.999915
0.514627
0.730304
1
1
1
1
1
0.999996
0.962634
0.962634
0.877727
0.623277
0.597253
1
1
1
1
1
1
0.999826
0.999826
0.999999
0.999964
0.986845
0.999904
0.999383
0.997321
0.986846
0.999904
0.997321
0.999383
1
1
0.93584
0.93883
0.927615
0.927627
0.935852
0.999397
0.999553
0.999998
0.999998
0.999397
0.999553
0.999998
0.999998
0.999996
0.999589
0.999755
0.999996
0.941083
0.97066
0.990832
0.998891
0.806214
0.948515
0.364744
0.950702
0.924318
0.996525
0.227193
0.927087
0.93097
0.761018
0.826549
0.92932
0.929325
0.999988
0.999988
0.976843
0.589454
1
1
1
1
1
0.987465
0.987465
0.827203
0.999998
1
1
1
1
1
1
1
0.999999
1
0.999851
0.999983
1
1
1
1
1
1
1
1
1
1
1
1
1
1
1
1
1
1
1
1
1
1
1
1
1
0.999994
1
1
0.999994
1
1
0.999998
1
0.999918
0.999967
0.999978
1
1
1
0.650598
0.230959
0.764302
0.296936
0.999913
0.907325
0.999954
0.999934
1
1
0.295012
0.999955
0.999987
0.999996
0.999898
0.999965
0.999976
0.999943
0.999976
0.99999
0.99999
0.999997
0.88952
0.889522
0.974834
0.999979
0.922254
0.922256
0.764305
0.47473
0.294898
0.474731
0.943564
0.943564
0.831339
0.895955
0.999586
0.99594
0.997991
0.999061
0.99594
0.997991
0.999061
1
0.999999
0.999953
0.999978
0.999922
0.999978
0.999953
0.999922
0.999993
0.230964
0.483351
0.311869
0.311869
0.296936
0.999913
0.999938
0.87395
0.916277
0.966018
0.978471
0.87395
0.916277
0.978471
0.699367
0.454333
0.379133
0.699367
0.454333
0.379133
0.907325
1
1
1
0.999537
0.999866
0.999954
0.999934
0.305354
0.882593
1
0.999906
0.999989
0.999906
0.999966
0.999989
0.999587
0.999874
0.999939
0.999972
0.999757
0.999911
0.999757
0.195132
0.195132
0.98088
0.995567
0.98088
0.997887
0.999712
0.997887
0.999712
0.295006
0.297938
0.999955
0.999996
0.9952
0.984087
0.997758
0.991803
0.940761
0.984087
0.997758
0.991803
0.940761
0.999999
1
1
1
1
1
1
0.999999
0.999643
0.999898
0.999965
0.999987
0.999993
0.999989
0.99997
0.999992
0.999993
0.999989
0.99997
0.999992
1
1
1
0.99999
0.999929
0.999995
1
0.99996
0.999995
0.999475
0.999766
1
1
1
1
1
1
1
1
1
1
1
1
1
0.999999
1
0.999999
0.999997
0.999999
0.999998
0.931538
0.965854
0.812724
0.483349
0.316825
0.767096
0.58998
0.770205
0.203744
0.0668894
0.291863
0.744767
0.739072
0.30769
0.753571
0.999981
0.999986
0.622715
0.261516
0.768546
0.614837
0.259993
1
1
1
1
1
1
1
1
1
0.999999
0.999997
0.999993
0.99999
0.999507
0.998816
0.999781
0.99996
0.99999
0.999609
0.999941
0.999987
1
1
1
1
1
1
1
0.999999
0.999999
0.999993
0.999999
0.999969
0.76227
0.322309
0.31888
0.940004
0.779019
0.773853
0.249001
0.956843
0.889587
0.831909
0.738768
0.299799
0.324973
0.746473
0.942714
0.781867
0.680031
0.193627
0.471251
1
0.999999
1
0.99999
1
0.307853
1
0.999999
0.999999
0.999983
0.999992
1
1
0.999994
0.999994
0.999986
1
0.999987
1
0.999996
0.999999
1
1
0.999998
0.999999
1
0.999999
1
0.999998
1
0.999999
1
1
0.999987
1
0.999996
0.999494
0.998579
0.999198
0.996319
0.974834
0.997316
0.9891
0.999198
0.999873
0.987142
0.9891
0.964305
0.99327
0.997316
0.999998
0.999986
0.999929
0.999999
0.999978
0.99996
0.999995
0.99999
0.999494
0.998579
0.999766
0.899245
0.964305
0.314193
0.719113
0.179268
0.460542
0.305932
0.883719
0.751393
0.305932
0.314193
0.17927
0.488428
0.460544
0.96276
0.877923
0.751393
0.683944
0.243507
0.930704
0.9121
0.243508
0.930704
0.9121
0.996881
0.996364
0.996881
0.988653
0.960601
1
1
1
1
0.999991
0.999889
0.999879
0.999388
0.999983
0.999959
0.999991
0.999889
0.999879
0.999388
0.999983
0.999959
1
1
1
1
1
1
1
1
1
1
1
1
1
1
1
1
1
1
1
1
1
1
1
1
1
1
1
0.999999
1
1
1
0.999999
1
1
0.999998
0.999988
0.999994
0.999982
0.999999
0.999992
0.999994
0.999998
0.999999
0.999988
0.999999
0.999992
1
1
0.999999
0.999997
0.999999
0.999998
0.999881
0.999896
0.999915
0.999851
0.999953
0.999679
0.999973
0.999976
0.999992
0.999987
0.999959
0.999903
0.999959
0.999987
0.999903
0.999995
0.999976
0.999851
0.999953
0.999679
0.999896
0.999881
0.999915
0.999973
0.899163
0.926596
0.833188
0.75424
0.646231
0.0830722
0.319729
0.196355
0.0830722
0.540018
0.319729
0.646231
0.931539
0.941712
0.316826
0.812725
0.767096
0.899163
0.926596
0.833188
0.754241
0.0799487
0.179399
0.248617
0.0799487
0.58998
0.770205
0.203744
0.62948
0.0668894
0.762523
0.30931
0.758959
0.300295
0.762523
0.30931
0.758959
0.739072
0.30769
0.753571
0.999984
0.999994
1
0.999999
1
1
1
1
1
1
1
1
1
1
0.999999
1
0.999999
1
1
1
0.999997
0.999894
0.999966
0.999999
0.999992
0.999981
0.999986
0.928247
0.987742
0.928247
0.987742
0.996545
0.990455
0.80112
0.603315
0.735449
0.168683
0.134293
0.80112
0.603315
0.735449
0.168683
0.134293
0.622715
0.937074
0.79629
0.768546
0.614837
1
1
1
1
1
1
1
1
1
1
1
1
1
1
1
1
1
1
1
1
1
1
1
1
0.999984
0.999904
0.999975
0.999965
0.999939
0.999984
0.999904
0.999866
0.999975
0.999965
0.999939
0.999997
0.99999
0.999999
0.999987
0.99996
0.999987
0.747527
0.999986
0.99993
0.999973
0.999999
0.999994
0.99972
0.997279
0.990935
0.99732
0.992593
0.99992
0.999557
0.998637
0.997279
0.990935
0.99732
0.989448
0.992594
0.999557
0.998637
0.99972
1
1
1
1
1
1
1
0.999999
0.999805
0.999998
0.999999
1
0.999805
0.999998
0.999982
0.999992
0.999967
0.999934
0.999874
0.999996
1
0.999999
0.999999
0.999999
0.999993
0.999969
0.999996
0.999992
0.999934
0.999967
0.999982
0.931894
0.763616
0.771515
0.921728
0.311546
0.31727
0.940834
0.776577
0.311478
0.934133
0.320865
0.302938
0.762707
0.749764
0.940867
0.776733
0.934159
0.762821
0.320987
0.311567
0.302975
0.749814
0.931901
0.763663
0.921734
0.311581
0.999988
0.999994
0.999911
0.999896
0.999911
0.999998
0.999984
0.999982
0.999999
0.999911
0.999896
0.999998
0.999984
0.999982
0.999999
0.999997
0.999998
0.999992
0.999896
0.999799
0.999975
0.999995
0.999975
0.999995
0.998475
0.999421
0.999997
0.999998
0.999992
0.999799
0.999869
0.999994
0.999981
0.999963
0.986782
0.995583
0.935331
0.780194
0.32184
0.319362
0.936678
0.77777
0.772899
0.987231
0.923301
0.993963
0.970749
0.995754
0.997472
0.832093
0.919218
0.841068
0.326172
0.546358
0.973732
0.820772
0.958923
0.814043
0.989348
0.985334
0.488394
0.595247
0.758528
0.750844
0.310999
0.305065
0.678726
0.146692
0.0648902
0.56518
0.403625
0.257817
0.248987
0.678726
0.146692
0.56518
0.257817
0.583811
0.0775012
0.424154
0.583811
0.0775012
0.424154
0.918521
0.989095
0.963032
0.949719
0.975191
0.310354
0.758655
0.999863
0.996599
0.989994
0.999863
0.996599
0.999344
0.989994
0.837851
0.963032
0.831754
0.918522
0.989095
0.975192
0.310369
0.283673
0.949721
0.758674
0.999924
0.999344
0.999924
0.913775
0.883913
0.759929
0.499645
0.201146
0.691323
0.940829
0.201146
0.940829
0.738758
0.299784
0.746452
0.918343
0.739297
1
1
1
1
1
1
1
1
1
1
1
1
0.999999
1
0.99999
1
0.959918
0.987367
0.99627
0.999285
0.997173
0.999302
0.897821
0.959918
0.987367
0.999285
0.999851
0.99627
0.997173
0.897821
0.921687
1
0.999999
1
1
1
1
1
1
1
1
1
1
1
1
1
1
1
1
1
1
1
1
0.999999
1
1
1
0.999903
0.999302
1
1
1
1
1
1
1
1
1
1
1
1
1
0.999999
1
0.999999
0.999992
1
1
1
1
1
1
1
1
1
1
1
1
1
1
1
1
1
1
1
1
1
1
1
1
1
1
1
1
1
1
1
1
1
1
1
1
1
1
1
1
1
1
1
1
1
1
1
1
1
1
1
0.999999
0.999999
0.999998
1
0.999998
0.999985
0.999998
0.999995
0.999996
1
1
0.999999
0.999999
1
1
0.999999
0.999999
0.999998
1
0.999998
0.999996
0.999985
0.999998
0.999995
1
1
0.999999
0.999999
1
1
1
0.999999
0.999999
1
1
1
1
1
1
1
1
1
1
1
1
)
;
    }
    AMI
    {
        type            fixedValue;
        value           uniform 0;
    }
    AMI_slave
    {
        type            fixedValue;
        value           uniform 0;
    }
}


// ************************************************************************* //
